21
Step 0 - MD Simulation
C 10.009048 10.007644 9.993973
H 10.623030 10.630220 10.634638
H 10.630400 9.360933 9.364469
H 9.378616 10.625494 9.370079
H 9.371841 9.361460 10.620812
O 13.003301 9.995333 9.997147
H 13.762215 10.580015 10.007845
H 12.236861 10.583941 10.007530
O 14.836247 9.993824 10.008160
C 16.001251 10.005847 10.006738
O 17.150462 10.002191 9.990117
N 10.008960 12.992678 10.007975
H 10.927745 13.001496 9.614598
H 9.538692 13.804559 9.632859
H 9.521860 12.191995 9.629810
H 11.339420 13.004289 9.990289
C 12.400018 12.991959 9.990509
C 13.593187 13.009454 10.005866
H 14.658484 13.006163 9.996640
H 15.355169 13.002620 9.994439
Cl 16.628616 12.997645 10.002426
