21
Step 800 - MD Simulation
C 3.931261 5.883450 6.063254
H 6.243314 40.301776 46.335554
H 26.260263 31.774910 2.020050
H 35.650464 47.418799 37.892570
H 39.267682 39.270898 23.167377
O 8.430018 7.123134 13.772667
H 23.269692 18.891474 32.670489
H 6.174736 14.777164 40.838035
O 14.733339 10.352616 10.260326
C 17.501508 9.745813 0.210501
O 21.231481 8.726593 12.646227
N 2.009717 10.008604 9.289842
H 15.362627 1.309944 31.716668
H 2.991003 40.802988 18.912270
H 35.540476 7.603840 21.592457
H 12.436039 37.384324 42.425843
C 10.628360 12.460145 9.154543
C 17.154015 14.444299 13.393581
H 26.384573 37.675697 26.070102
H 10.278843 30.896882 31.737629
Cl 20.647445 12.909412 10.561608
