21
Step 160 - MD Simulation
C 9.990956 10.005351 9.999387
H 10.694633 10.644836 10.628346
H 10.662890 9.390948 9.291836
H 9.417837 10.742574 9.276987
H 9.421753 9.336595 10.626006
O 13.006580 9.994091 9.989318
H 13.835572 10.648033 9.972094
H 12.170341 10.623026 10.013668
O 14.837397 10.006130 10.014520
C 16.004543 9.997850 10.016230
O 17.166473 9.999188 9.971100
N 10.006072 12.977903 10.020945
H 11.023359 13.027321 9.620655
H 9.538618 13.749441 9.622754
H 9.632587 12.269192 9.615985
H 11.370969 13.055455 9.993574
C 12.398231 12.985611 10.003956
C 13.596171 13.019666 10.017071
H 14.673575 12.945028 9.964595
H 15.377118 12.992285 10.080922
Cl 16.611506 12.994503 9.997309
