21
Step 230 - MD Simulation
C 9.983209 10.004755 10.001127
H 10.731647 10.656649 10.631223
H 10.682540 9.398836 9.254170
H 9.430108 10.799763 9.230258
H 9.438416 9.319747 10.633757
O 13.008066 9.992946 9.985937
H 13.874130 10.684999 9.956305
H 12.133527 10.646007 10.016623
O 14.837287 10.011523 10.017295
C 16.005347 9.994291 10.020841
O 17.174094 9.997856 9.962722
N 10.005152 12.971810 10.027050
H 11.058423 13.038018 9.616301
H 9.533949 13.732907 9.614418
H 9.676868 12.295262 9.605693
H 11.391291 13.078396 10.001811
C 12.397293 12.982313 10.009881
C 13.598204 13.024226 10.021964
H 14.670579 12.917748 9.949475
H 15.396297 12.988234 10.120228
Cl 16.604268 12.993164 9.995055
