21
Step 80 - MD Simulation
C 9.999987 10.006408 9.996956
H 10.656648 10.635319 10.629205
H 10.644492 9.378094 9.330506
H 9.400219 10.681720 9.325847
H 9.398959 9.351358 10.621216
O 13.004934 9.994945 9.993200
H 13.795992 10.611365 9.990055
H 12.206556 10.601093 10.010441
O 14.837067 9.999970 10.011335
C 16.003231 10.001835 10.011426
O 17.158224 10.000712 9.980616
N 10.007358 12.985155 10.014276
H 10.978314 13.014479 9.620370
H 9.540481 13.773955 9.629285
H 9.578925 12.233679 9.624593
H 11.352528 13.029813 9.989318
C 12.399408 12.988903 9.997235
C 13.594388 13.014554 10.011453
H 14.669931 12.975694 9.980870
H 15.362318 12.997301 10.037313
Cl 16.619968 12.996065 9.999876
