21
Step 250 - MD Simulation
C 9.981027 10.004638 10.001564
H 10.742911 10.660583 10.632625
H 10.688792 9.400539 9.242713
H 9.433107 10.816821 9.216267
H 9.442603 9.314269 10.636592
O 13.008503 9.992550 9.984971
H 13.885665 10.696523 9.951765
H 12.122132 10.653228 10.017523
O 14.837183 10.013054 10.018095
C 16.005579 9.993246 10.022246
O 17.176334 9.997475 9.960316
N 10.004930 12.970113 10.028841
H 11.067746 13.041001 9.614299
H 9.532101 13.729040 9.611590
H 9.689117 12.301871 9.602239
H 11.397816 13.085038 10.004978
C 12.397103 12.981331 10.011579
C 13.598868 13.025543 10.023370
H 14.668713 12.909868 9.944927
H 15.402862 12.987219 10.131724
Cl 16.602236 12.992781 9.994408
