21
Step 130 - MD Simulation
C 9.994334 10.005697 9.998535
H 10.679857 10.640755 10.628118
H 10.655487 9.386617 9.306908
H 9.411671 10.719223 9.295866
H 9.413693 9.342687 10.623693
O 13.005957 9.994460 9.990764
H 13.820125 10.633620 9.978844
H 12.184640 10.614267 10.012458
O 14.837331 10.003814 10.013321
C 16.004119 9.999344 10.014390
O 17.163325 9.999769 9.974672
N 10.006524 12.980586 10.018406
H 11.007120 13.022563 9.621218
H 9.539736 13.757936 9.625585
H 9.612856 12.256603 9.619615
H 11.363465 13.045781 9.991329
C 12.398717 12.986903 10.001435
C 13.595430 13.017740 10.014968
H 14.673115 12.956580 9.970782
H 15.370670 12.994128 10.064440
Cl 16.614660 12.995082 9.998272
