21
Step 200 - MD Simulation
C 9.986504 10.004973 10.000425
H 10.715342 10.651204 10.629574
H 10.673713 9.395825 9.270757
H 9.425182 10.774758 9.250721
H 9.431646 9.327417 10.630039
O 13.007424 9.993487 9.987387
H 13.857215 10.668562 9.963074
H 12.149878 10.635715 10.015324
O 14.837378 10.009211 10.016108
C 16.005016 9.995830 10.018803
O 17.170786 9.998424 9.966320
N 10.005522 12.974392 10.024400
H 11.043885 13.033496 9.618679
H 9.536295 13.739419 9.618264
H 9.658181 12.284642 9.610441
H 11.382108 13.068514 9.997758
C 12.397645 12.983759 10.007336
C 13.597284 13.022259 10.019863
H 14.672540 12.929484 9.956094
H 15.387356 12.989905 10.103220
Cl 16.607347 12.993735 9.996024
