21
Step 1000 - MD Simulation
C 1.905420 4.681575 4.847454
H 6.043902 47.698660 4.069505
H 29.904918 26.374678 1.050743
H 31.376875 43.585880 32.614851
H 34.400580 33.843012 26.475841
O 7.212058 6.428555 15.028591
H 23.811149 19.885405 26.449716
H 5.003150 14.507264 48.254504
O 15.116108 10.272226 10.371996
C 17.927691 9.666933 47.676507
O 22.093444 8.525988 13.281560
N 0.342642 9.270941 8.905123
H 14.540906 48.167129 26.705292
H 0.993575 46.317568 20.410969
H 30.805775 6.785388 23.876447
H 11.814042 42.164080 49.948702
C 10.286226 12.679253 8.956556
C 17.660185 15.360024 14.426403
H 30.861230 42.556329 29.452407
H 8.693972 32.171763 24.543242
Cl 21.756067 12.801812 10.689104
