21
Step 50 - MD Simulation
C 10.003386 10.006888 9.995901
H 10.643557 10.632895 10.630715
H 10.638720 9.372200 9.343760
H 9.392603 10.660081 9.342917
H 9.389300 9.355703 10.620580
O 13.004329 9.995149 9.994673
H 13.782618 10.599020 9.996774
H 12.218627 10.594100 10.009311
O 14.836816 9.997663 10.010144
C 16.002562 10.003329 10.009673
O 17.155254 10.001268 9.984182
N 10.007929 12.987950 10.011862
H 10.959982 13.009611 9.618818
H 9.540240 13.784703 9.630932
H 9.557908 12.218790 9.626931
H 11.346973 13.020240 9.989095
C 12.399701 12.990059 9.994711
C 13.593868 13.012641 10.009360
H 14.666556 12.987102 9.986842
H 15.358724 12.999278 10.021181
Cl 16.623187 12.996659 10.000839
