21
Step 40 - MD Simulation
C 10.004520 10.007050 9.995530
H 10.639326 10.632217 10.631366
H 10.636930 9.370089 9.348039
H 9.389936 10.653021 9.348483
H 9.385949 9.357011 10.620498
O 13.004126 9.995203 9.995166
H 13.778346 10.595059 9.999000
H 12.222464 10.591924 10.008950
O 14.836718 9.996894 10.009747
C 16.002318 10.003828 10.009086
O 17.154279 10.001455 9.985369
N 10.008129 12.988890 10.011070
H 10.953709 13.007989 9.618135
H 9.540047 13.788483 9.631391
H 9.550799 12.213626 9.627605
H 11.345282 13.017051 9.989174
C 12.399782 12.990443 9.993870
C 13.593715 13.012004 10.008663
H 14.665182 12.990915 9.988814
H 15.357772 12.999944 10.015820
Cl 16.624266 12.996858 10.001157
