21
Step 150 - MD Simulation
C 9.992079 10.005461 9.999111
H 10.689638 10.643415 10.628205
H 10.660351 9.389565 9.296931
H 9.415839 10.734720 9.283353
H 9.419121 9.338701 10.625165
O 13.006372 9.994222 9.989800
H 13.830343 10.643138 9.974346
H 12.175213 10.620034 10.013264
O 14.837383 10.005357 10.014122
C 16.004409 9.998350 10.015609
O 17.165415 9.999381 9.972291
N 10.006219 12.978792 10.020093
H 11.018028 13.025745 9.620931
H 9.539047 13.752181 9.623750
H 9.626059 12.265096 9.617249
H 11.368387 13.052222 9.992736
C 12.398391 12.986051 10.003115
C 13.595912 13.019021 10.016370
H 14.673539 12.948890 9.966680
H 15.374853 12.992896 10.075403
Cl 16.612554 12.994696 9.997629
