21
Step 600 - MD Simulation
C 6.054161 7.146070 7.251227
H 6.894870 32.812093 37.792254
H 22.678268 38.052879 3.883526
H 40.452057 0.580795 43.413736
H 44.149583 43.973032 19.689481
O 9.629626 7.843587 12.456537
H 21.787315 17.247713 39.207180
H 7.870764 14.352925 33.290184
O 14.301981 10.286590 10.149563
C 17.128945 9.957109 2.729183
O 20.231861 9.024059 11.937334
N 4.100641 10.776242 9.542537
H 15.159447 4.198742 37.478086
H 4.710134 34.793523 16.692030
H 40.804953 8.019410 19.488978
H 12.364426 32.301095 34.777946
C 10.910875 12.315391 9.500786
C 16.401563 13.874221 12.220921
H 22.302351 31.969135 23.084137
H 11.737789 27.728778 38.069099
Cl 19.616242 12.942863 10.411818
