21
Step 70 - MD Simulation
C 10.001119 10.006566 9.996612
H 10.652215 10.634441 10.629628
H 10.642498 9.376200 9.334991
H 9.397748 10.674433 9.331610
H 9.395801 9.352882 10.620938
O 13.004730 9.995019 9.993692
H 13.791439 10.607172 9.992293
H 12.210667 10.598682 10.010059
O 14.836990 9.999201 10.010940
C 16.003019 10.002332 10.010841
O 17.157227 10.000896 9.981806
N 10.007542 12.986082 10.013465
H 10.972287 13.012853 9.619940
H 9.540460 13.777439 9.629881
H 9.571972 12.228811 9.625431
H 11.350595 13.026621 9.989165
C 12.399513 12.989290 9.996394
C 13.594205 13.013917 10.010752
H 14.668932 12.979493 9.982871
H 15.361001 12.997958 10.031927
Cl 16.621038 12.996263 10.000198
