21
Step 30 - MD Simulation
C 10.005652 10.007209 9.995148
H 10.635156 10.631608 10.632086
H 10.635205 9.367908 9.352251
H 9.387212 10.646030 9.353987
H 9.382534 9.358243 10.620481
O 13.003920 9.995249 9.995660
H 13.774171 10.591180 10.001215
H 12.226203 10.589828 10.008598
O 14.836611 9.996126 10.009350
C 16.002065 10.004327 10.008499
O 17.153312 10.001641 9.986556
N 10.008333 12.989834 10.010285
H 10.947346 13.006368 9.617372
H 9.539797 13.792357 9.631823
H 9.543643 12.208356 9.628231
H 11.343686 13.013857 9.989330
C 12.399854 12.990825 9.993030
C 13.593570 13.011366 10.007964
H 14.663687 12.994727 9.990781
H 15.356946 13.000610 10.010465
Cl 16.625348 12.997055 10.001475
