21
Step 240 - MD Simulation
C 9.982116 10.004693 10.001348
H 10.737236 10.658586 10.631893
H 10.685631 9.399716 9.248480
H 9.431634 10.808251 9.223300
H 9.440543 9.317045 10.635141
O 13.008284 9.992752 9.985454
H 13.879876 10.690702 9.954036
H 12.127885 10.649580 10.017069
O 14.837239 10.012289 10.017694
C 16.005461 9.993771 10.021539
O 17.175210 9.997665 9.961519
N 10.005039 12.970958 10.027944
H 11.063125 13.039511 9.615346
H 9.533051 13.730929 9.613031
H 9.683014 12.298615 9.603997
H 11.394514 13.081709 10.003345
C 12.397193 12.981824 10.010730
C 13.598530 13.024883 10.022667
H 14.669701 12.913814 9.947215
H 15.399523 12.987713 10.125957
Cl 16.603250 12.992973 9.994732
