21
Step 120 - MD Simulation
C 9.995463 10.005827 9.998235
H 10.675065 10.639535 10.628190
H 10.653158 9.385046 9.311775
H 9.409493 10.711577 9.302015
H 9.410885 9.344569 10.623064
O 13.005752 9.994569 9.991249
H 13.815128 10.628997 9.981094
H 12.189210 10.611490 10.012055
O 14.837293 10.003044 10.012921
C 16.003961 9.999842 10.013788
O 17.162291 9.999961 9.975861
N 10.006683 12.981492 10.017571
H 11.001534 13.020959 9.621223
H 9.539996 13.760951 9.626423
H 9.606177 12.252208 9.620714
H 11.361118 13.042577 9.990750
C 12.398874 12.987315 10.000593
C 13.595202 13.017101 10.014267
H 14.672724 12.960412 9.972813
H 15.368768 12.994757 10.058987
Cl 16.615716 12.995276 9.998593
