21
Step 20 - MD Simulation
C 10.006783 10.007364 9.994759
H 10.631054 10.631076 10.632874
H 10.633542 9.365657 9.356397
H 9.384426 10.639114 9.359420
H 9.379046 9.359395 10.620521
O 13.003715 9.995285 9.996155
H 13.770093 10.587380 10.003424
H 12.229850 10.587795 10.008242
O 14.836497 9.995358 10.008952
C 16.001803 10.004831 10.007911
O 17.152354 10.001825 9.987743
N 10.008540 12.990782 10.009507
H 10.940901 13.004747 9.616531
H 9.539494 13.796325 9.632217
H 9.536431 12.202998 9.628807
H 11.342175 13.010666 9.989566
C 12.399917 12.991206 9.992189
C 13.593433 13.010728 10.007264
H 14.662072 12.998546 9.992743
H 15.356241 13.001281 10.005114
Cl 16.626433 12.997252 10.001793
