21
Step 10 - MD Simulation
C 10.007915 10.007509 9.994365
H 10.627010 10.630613 10.633723
H 10.631939 9.363329 9.360468
H 9.381559 10.632272 9.364783
H 9.375476 9.360466 10.620628
O 13.003509 9.995314 9.996651
H 13.766108 10.583658 10.005635
H 12.233407 10.585832 10.007886
O 14.836376 9.994591 10.008556
C 16.001533 10.005337 10.007325
O 17.151405 10.002008 9.988931
N 10.008750 12.991729 10.008737
H 10.934370 13.003122 9.615610
H 9.539126 13.800392 9.632561
H 9.529166 12.197546 9.629331
H 11.340750 13.007480 9.989885
C 12.399973 12.991584 9.991349
C 13.593305 13.010091 10.006564
H 14.660339 13.002358 9.994694
H 15.355647 13.001952 9.999773
Cl 16.627523 12.997449 10.002110
