21
Step 220 - MD Simulation
C 9.984304 10.004821 10.000898
H 10.726131 10.654773 10.630610
H 10.679522 9.397900 9.259783
H 9.428515 10.791353 9.237148
H 9.436223 9.322378 10.632446
O 13.007850 9.993134 9.986420
H 13.868432 10.679411 9.958570
H 12.139071 10.642504 10.016186
O 14.837325 10.010752 10.016900
C 16.005235 9.994807 10.020151
O 17.172985 9.998046 9.963922
N 10.005271 12.972666 10.026162
H 11.053654 13.036518 9.617174
H 9.534792 13.734979 9.615748
H 9.670686 12.291815 9.607333
H 11.388150 13.075094 10.000369
C 12.397401 12.982799 10.009032
C 13.597888 13.023570 10.021262
H 14.671344 12.921670 9.951705
H 15.393192 12.988770 10.114529
Cl 16.605289 12.993354 9.995378
