21
Step 60 - MD Simulation
C 10.002252 10.006726 9.996261
H 10.647853 10.633632 10.630135
H 10.640573 9.374236 9.339412
H 9.395212 10.667218 9.337298
H 9.392583 9.354326 10.620726
O 13.004529 9.995088 9.994182
H 13.786983 10.603061 9.994538
H 12.214692 10.596350 10.009684
O 14.836906 9.998432 10.010542
C 16.002795 10.002830 10.010257
O 17.156237 10.001081 9.982995
N 10.007733 12.987014 10.012660
H 10.966174 13.011232 9.619421
H 9.540379 13.781022 9.630429
H 9.564965 12.223849 9.626209
H 11.348745 13.023429 9.989092
C 12.399611 12.989675 9.995552
C 13.594031 13.013279 10.010055
H 14.667808 12.983297 9.984863
H 15.359801 12.998617 10.026549
Cl 16.622111 12.996461 10.000518
