21
Step 170 - MD Simulation
C 9.989837 10.005246 9.999656
H 10.699703 10.646321 10.628551
H 10.665492 9.392263 9.286671
H 9.419766 10.750501 9.270538
H 9.424323 9.334422 10.626914
O 13.006789 9.993953 9.988835
H 13.840872 10.653018 9.969840
H 12.165367 10.626089 10.014071
O 14.837403 10.006901 10.014918
C 16.004669 9.997348 10.016859
O 17.167540 9.998996 9.969907
N 10.005928 12.977018 10.021801
H 11.028614 13.028887 9.620291
H 9.538121 13.746793 9.621706
H 9.639061 12.273197 9.614673
H 11.373626 13.058701 9.994496
C 12.398074 12.985160 10.004800
C 13.596439 13.020312 10.017770
H 14.673491 12.941157 9.962493
H 15.379499 12.991684 10.086465
Cl 16.610461 12.994311 9.996989
