21
Step 180 - MD Simulation
C 9.988721 10.005149 9.999919
H 10.704846 10.647881 10.628828
H 10.668166 9.393510 9.281442
H 9.421627 10.758505 9.264004
H 9.426829 9.332164 10.627889
O 13.007000 9.993806 9.988354
H 13.846254 10.658104 9.967584
H 12.160305 10.629222 10.014483
O 14.837401 10.007670 10.015316
C 16.004790 9.996843 10.017497
O 17.168614 9.998805 9.968712
N 10.005789 12.976138 10.022663
H 11.033790 13.030438 9.619842
H 9.537569 13.744230 9.620609
H 9.645485 12.277108 9.613315
H 11.376370 13.061961 9.995500
C 12.397923 12.984699 10.005645
C 13.596712 13.020959 10.018469
H 14.673286 12.937277 9.960382
H 15.381999 12.991081 10.092028
Cl 16.609420 12.994119 9.996668
