21
Step 400 - MD Simulation
C 8.133631 8.354943 8.531069
H 7.898567 25.010909 28.936048
H 18.979563 44.789788 5.949381
H 46.708704 3.945863 49.030306
H 49.422703 49.187585 15.977386
O 10.794059 8.611458 11.202813
H 19.359149 15.117344 46.724081
H 8.519736 13.313821 25.079839
O 14.040510 10.194360 10.068247
C 16.618173 10.086677 5.316835
O 19.062759 9.392333 11.176698
N 6.428230 11.575535 9.841936
H 14.455584 7.216584 43.937028
H 6.024879 27.923432 14.133756
H 47.007790 8.698525 16.534074
H 12.013381 26.540811 26.393000
C 10.951971 12.184419 9.867447
C 15.430840 13.384271 11.262497
H 19.806747 25.139695 19.634562
H 13.192692 23.850089 44.757012
Cl 18.570784 12.944947 10.271692
