21
Step 110 - MD Simulation
C 9.996593 10.005963 9.997928
H 10.670345 10.638383 10.628339
H 10.650893 9.383408 9.316572
H 9.407261 10.703999 9.308087
H 9.408007 9.346373 10.622500
O 13.005547 9.994673 9.991734
H 13.810212 10.624464 9.983346
H 12.193689 10.608787 10.011655
O 14.837247 10.002276 10.012523
C 16.003795 10.000343 10.013191
O 17.161264 10.000152 9.977051
N 10.006844 12.982401 10.016743
H 10.995865 13.019356 9.621137
H 9.540203 13.764064 9.627210
H 9.599451 12.247720 9.621760
H 11.358845 13.039380 9.990263
C 12.399023 12.987720 9.999754
C 13.594986 13.016465 10.013563
H 14.672207 12.964246 9.974838
H 15.366976 12.995387 10.053548
Cl 16.616776 12.995472 9.998913
