21
Step 100 - MD Simulation
C 9.997723 10.006106 9.997612
H 10.665709 10.637287 10.628560
H 10.648687 9.381700 9.321299
H 9.404970 10.696500 9.314083
H 9.405060 9.348108 10.621995
O 13.005343 9.994772 9.992222
H 13.805381 10.620009 9.985584
H 12.198070 10.606153 10.011250
O 14.837196 10.001509 10.012127
C 16.003618 10.000843 10.012599
O 17.160242 10.000341 9.978239
N 10.007010 12.983315 10.015915
H 10.990105 13.017743 9.620965
H 9.540355 13.767268 9.627949
H 9.592661 12.243132 9.622754
H 11.356653 13.036189 9.989865
C 12.399164 12.988119 9.998915
C 13.594778 13.015828 10.012859
H 14.671571 12.968075 9.976854
H 15.365304 12.996019 10.048127
Cl 16.617837 12.995670 9.999234
