21
Step 210 - MD Simulation
C 9.985402 10.004894 10.000665
H 10.720699 10.652959 10.630056
H 10.676582 9.396895 9.265311
H 9.426873 10.783016 9.243972
H 9.433967 9.324932 10.631211
O 13.007636 9.993315 9.986904
H 13.862791 10.673933 9.960824
H 12.144525 10.639072 10.015754
O 14.837356 10.009981 10.016504
C 16.005126 9.995319 10.019471
O 17.171883 9.998235 9.965121
N 10.005395 12.973528 10.025278
H 11.048811 13.035013 9.617966
H 9.535574 13.737154 9.617029
H 9.664457 12.288274 9.608919
H 11.385088 13.071799 9.999020
C 12.397518 12.983282 10.008184
C 13.597582 13.022912 10.020562
H 14.671999 12.925579 9.953911
H 15.390210 12.989328 10.108859
Cl 16.606316 12.993544 9.995701
