21
Step 140 - MD Simulation
C 9.993205 10.005576 9.998828
H 10.684713 10.642052 10.628125
H 10.657883 9.388119 9.301960
H 9.413786 10.726936 9.289644
H 9.416436 9.340730 10.624388
O 13.006164 9.994345 9.990280
H 13.825194 10.638333 9.976596
H 12.179977 10.617115 10.012861
O 14.837362 10.004584 10.013722
C 16.004268 9.998848 10.014996
O 17.164366 9.999575 9.973482
N 10.006370 12.979686 10.019246
H 11.012618 13.024161 9.621120
H 9.539415 13.755009 9.624695
H 9.619485 12.260901 9.618460
H 11.365883 13.048999 9.991991
C 12.398554 12.986482 10.002275
C 13.595666 13.018379 10.015669
H 14.673384 12.952743 9.968737
H 15.372697 12.993508 10.069909
Cl 16.613606 12.994889 9.997951
