21
Step 90 - MD Simulation
C 9.998855 10.006254 9.997288
H 10.661144 10.636264 10.628849
H 10.646551 9.379923 9.325946
H 9.402622 10.689077 9.320004
H 9.402045 9.349767 10.621570
O 13.005138 9.994863 9.992710
H 13.800638 10.615643 9.987818
H 12.202357 10.603587 10.010841
O 14.837135 10.000740 10.011731
C 16.003430 10.001340 10.012012
O 17.159229 10.000528 9.979427
N 10.007181 12.984233 10.015092
H 10.984254 13.016112 9.620713
H 9.540448 13.770563 9.628641
H 9.585820 12.238452 9.623701
H 11.354547 13.033000 9.989554
C 12.399293 12.988514 9.998076
C 13.594578 13.015191 10.012155
H 14.670810 12.971890 9.978864
H 15.363753 12.996654 10.042714
Cl 16.618900 12.995868 9.999555
