21
Step 190 - MD Simulation
C 9.987610 10.005058 10.000176
H 10.710059 10.649510 10.629164
H 10.670905 9.394695 9.276136
H 9.423432 10.766589 9.257397
H 9.429272 9.329827 10.628930
O 13.007212 9.993650 9.987870
H 13.851703 10.663287 9.965325
H 12.155142 10.632434 10.014900
O 14.837392 10.008440 10.015713
C 16.004904 9.996338 10.018144
O 17.169697 9.998614 9.967517
N 10.005653 12.975262 10.023528
H 11.038880 13.031972 9.619305
H 9.536959 13.741774 9.619460
H 9.651858 12.280920 9.611906
H 11.379201 13.065234 9.996588
C 12.397780 12.984232 10.006489
C 13.596994 13.021607 10.019166
H 14.672968 12.933384 9.958250
H 15.384619 12.990487 10.097609
Cl 16.608382 12.993926 9.996346
